[["Z Geology - Books magma - Naturally occurring silicate melt, which may contain suspended silicate crystals , dissolved gases , or both.",2.222111225128174],["Noble gases have very low boiling and melting points, which makes them useful as cryogenic refrigerants.",2.091653823852539],["Many nonmetals are liquids and gases, which generally have lower melting points, boiling points, and densities than metals.",2.091653823852539],["Examples are melting, boiling, mixing of gases, and a solute dissolving in a solvent.",1.833359718322754],["Physical Science 8, is a semester long course which investigates buoyancy, gases, and changes in the states of matter such as boiling, melting, and freezing of a substance.",1.8301970958709717],["Fifteen (15) percent for these gases which are the result of routine smelting/melting operations where no auxiliary operations will occur;",1.7991520166397095],["This oxide viewpoint allows technicians to most often ignore elements which become volatile and boil away as gases during the glaze melting, and simply classify them as LOI.",1.5687403678894043],["For the permanent gases the increase of volume received by each of them between the temperature of melting ice and that of boiling water is equal to 80/213.",1.4666876792907715],["The noble gases have weak interatomic force, and consequently have very low melting and boiling points.",1.4666876792907715],["The impact on global warming occurs because both water vapor and ozone are greenhouse gases, which trap heat leaving the Earth .",1.4017564058303833],["52 shows in a similar way the losses which occur as the result of poisonous gases, both from the various reasons and also the total.",1.4017564058303833],["While the contaminated mixture is melting, gases (called off-gases) are released, which are hazardous substances themselves.",1.3146114349365234],["These gases carry with them a portion of the water which is heated by the gases and are overflowed in to the melting pit.",1.3146114349365234],["State and Phase Changes a. Melting Points of Solids b. Solid Crystal Shapes c. Boiling Points of Liquids d. Vaporization of Liquids e. Gases 10.",1.2833516597747803],["State and Phase Changes a. Melting Points of Solids b. Solid Crystal Shapes c. Boiling Points of Liquids d. Vaporization of Liquids e. Gases 10.",1.2833516597747803],["Radon is the heaviest noble gas and exhibits the highest boiling point, melting point, critical temperature, and critical pressure of all noble gases.",1.2833516597747803],["State and Phase Changes a. Melting Points of Solids b. Solid Crystal Shapes c. Boiling Points of Liquids d. Vaporization of Liquids e. Gases 10.",1.2833516597747803],["State and Phase Changes a. Melting Points of Solids b. Solid Crystal Shapes c. Boiling Points of Liquids d. Vaporization of Liquids e. Gases 10.",1.2833516597747803],["This gases boiling point is -188.13 degrees F or -306.63 degrees C. -219.61 degrees C or -363.30 degrees f are its melting point.",1.2833516597747803],["The outer planets are less dense and are composed mainly of elements with low melting and boiling points--often gases like hydrogen, nitrogen, or ammonia.",1.2833516597747803],["State and Phase Changes a. Melting Points of Solids b. Solid Crystal Shapes c. Boiling Points of Liquids d. Vaporization of Liquids e. Gases 10.",1.2833516597747803],["State and Phase Changes a. Melting Points of Solids b. Solid Crystal Shapes c. Boiling Points of Liquids d. Vaporization of Liquids e. Gases 10.",1.2833516597747803],["Calculate amounts of heat involved in heating or cooling solids, melting solids or freezing liquids, and combine these calculations with those for liquids, gases, and boiling and condensing.",1.2833516597747803],["Lighter than all other gases, it is the least dense substance at 0.99 grams per liter, melting at -259.2 C and boiling at -252.77 C.",1.2833516597747803],["When large numbers of atoms get together, we can observe phase transition -- solids melting to liquids, liquids boiling to gases, and so on.",1.2833516597747803],["An alternate hypothesis invokes 'debris flows,' which may consist of clouds of hot gases and both melted and solid rock fragments that race across the landscape during the impact event.",1.27219820022583],["These philosophers found that all gases whatever, and all vapours raised from liquids by heat, as well as all mixtures of gases and vapours, are subject to the same guantity of Fusion between the temperatures of melting ice and boiling water;",1.2626028060913086],["Need to compress both gases into a transportable and safe form, which would also take power from solar.",1.2584073543548584],["Gases like nitrogen are frozen until something occurs to melt them, then it turns back into a gas.",1.2473113536834717],["every husbandman knows it, and knows that to raise a crop of corn, be must plant the seed in a soil duly prepared, and which will supply the gases needed for its germination, growth, flowering, boiling, and ripening.",1.2403477430343628],["every husbandman knows it, and knows that to raise a crop of corn, be must plant the seed in a soil duly prepared, and which will supply the gases needed for its germination, growth, flowering, boiling, and ripening.",1.2403477430343628],["every husbandman knows it, and knows that to raise a crop of corn, be must plant the seed in a soil duly prepared, and which will supply the gases needed for its germination, growth, flowering, boiling, and ripening.",1.2403477430343628],["Gases occurring at the surface also contain nitrogen monoxide and nitrogen dioxide which both are products resulting from the reduction of nitric acid.",1.226536750793457],["they give off both reflected light and their own intrinsic glow from warmed gases their gases are produced by melted ices that gradually evaporate",1.2135621309280396],["Which of the following are BOTH elements and gases at room temperature?",1.1996729373931885],["Which of the following are BOTH elements and gases at room temperature?",1.1996729373931885],["Which of the following are BOTH elements and gases at room temperature?",1.1996729373931885],["It melts at -189.9 C and boils at -42.2 C. Propane occurs in nature in natural gas and (in dissolved form) in crude oil;",1.1948630809783936],["These gases occur through both natural and human-influenced processes.",1.186580777168274],["These gases occur both through natural and human influenced processes.",1.186580777168274],["3.5 Analytical techniques Both the melt and the exhaust gases were analyzed for the presence of various species.",1.1701453924179077],["- JS Both processes allow dissolved gases to escape from the water so that they can't serve as seed bubbles for boiling.",1.1686410903930664],["Both there and on our island, many interesting minerals have filled the cracks and bubbles left by gases boiling out of the cooling lavas.",1.1686410903930664],["They are both gases at room temperature, and their boiling points are -99.9 o C and -86 o C, respectively.",1.1686410903930664],["- JS Both processes allow dissolved gases to escape from the water so that they can't serve as seed bubbles for boiling.",1.1686410903930664],["They are both gases at room temperature, and their boiling points are -99.9 o C and -86 o C, respectively.",1.1686410903930664],["Gases sometimes boiled from the fault.",1.159983515739441],["These gases are cooled to below their boiling points.",1.159983515739441],["Low boiling light gases are vented.",1.159983515739441],["Gases sometimes boiled from the fault.",1.159983515739441],["Which type of chemical or gases that >I need \nto consider?",1.1541541814804077],["Which type of chemical or gases that >I need to consider?",1.1541541814804077],["Which type of chemical or gases that > >I need to consider?",1.1541541814804077],["Which type of chemical or gases that I need to consider?",1.1541541814804077],["His research has concentrated on the phase behavior of natural gases and petroleum, that is the conditions under which liquids boil or gases become solids.",1.1489686965942383],["Comments Help Links Window Version Show Table With: Name Atomic Number Atomic Mass Electron Configuration Number of Neutrons Melting Point Boiling Point Date of Discovery Crystal Structure Element Groups: Alkali Metals Alkaline Earth Metals Transition Metals Other Metals Metalloids Non-Metals Halogens Noble Gases Rare Earth Elements The alkali metals, found in group 1 of the periodic table (formerly known as group IA), are very reactive metals that do not occur freely in nature.",1.145482063293457],["The latter need not involve boiling gases - solid CO 2 /acetone or even ice/NaCl are just fine.",1.1382951736450195]]