[["b) Melting point and boiling point Answer: The melting point of a substance is the temperature at which it will change from a solid to a liquid.",2.2064201831817627],["Nucleation occurred both at grains at the solid-melt interface and at the tips of some specimens.\"",2.1609208583831787],["Why is the energy needed to boil the liquid phase of a substance typically larger than the energy needed to melt the solid phase?",2.07533597946167],["The solid has a low melting and boiling point.",2.0153965950012207],["You are like boiling water, while the demons are like solid ice which, in the presence of heat, soon melts away.",1.9336962699890137],["Melting point The melting point is the temperature at which the change of state from solid to liquid occurs.",1.9006716012954712],["They are called the heat of fusion for melting processes, heat of vaporization for boiling processes, and heat of sublimation when the solid-gas phase change occurs directly.",1.8742785453796387],["They are called the heat of fusion for melting processes, heat of vaporization for boiling processes, and heat of sublimation when the solid-gas phase change occurs directly.",1.8742785453796387],["Although melting of shallow mantle, in which clinopyroxene controls their partitioning between melt and solid, Sm and Hf may indeed both be comparably enriched in the melt.",1.75209379196167],["Label it solid below melting point, liquid between the melting and boiling points and gas above the boiling point.",1.7520323991775513],["MELTING POINT - Temperature at which a solid material melts.",1.7438656091690063],["MELTING POINT - Temperature at which a solid material melts.",1.7438656091690063],["The temperature at which a solid melts is its melting point.",1.7438656091690063],["Physical properties such as Melting Point and Boiling Point depend directly on the magnitude of the forces of attraction which are holding the particles, or units, of a substance together in the solid or liquid state.",1.6919842958450317],["the highest known, hexadecane, C16H34, is a solid body forming colourless crystals which melts at 21&#176; and boils only at 278&#176;.",1.6919842958450317],["the highest known, hexadecane, C16H34, is a solid body forming colourless crystals which melts at 21&#176; and boils only at 278&#176;.",1.6919842958450317],["...back to table of contents Criteria to Determine Which Substance has the Highest Boiling Point (b.p.) or Melting Point (m.p.) Any network covalent solid (eg.",1.6919842958450317],["2-Acetylfuran is a low melting solid or high boiling liquid, depending on temperature.",1.6794973611831665],["It is a solid that melts at 48 to 50 °C and boils at 112.3 °C.",1.6794973611831665],["When you boil the solid you melt it back to the liquid state.",1.6794973611831665],["Such crystalline solids have extremely high melting and boiling points.",1.6794973611831665],["When you boil the solid you melt it back to the liquid state.",1.6794973611831665],["Ionic solids tend to have very high melting and boiling points.",1.6794973611831665],["Similarly, solid and liquid coexist in equilibrium at the melting or boiling point.",1.6794973611831665],["Melting occurs when a solid changes to a liquid.",1.6714296340942383],["When melting occurs the rock is no longer in the solid state.",1.6714296340942383],["When a material changes from a solid to a liquid, the process is called melting, and occurs at a temperature called the melting point, which is specific to the given substance.",1.6630876064300537],["SELENIUM Atomic Symbol - Se Atomic weight - 78.96 Atomic number - 34 Electron configuration - 2-8-18-6 Oxidation states - +4, +6, -2 State of matter - solid Non-metal Discovered in 1818 by J&ouml;ns Jacob Berzelius Boils at 685 &#176;C, melts at 50 or 217 &#176;C Notes: Selenium occurs in both the amorphous and gray states, that is why it has two melting points.",1.6611111164093018],["Partial melting occurs when only a portion of a solid is melted.",1.6485368013381958],["Enthalpy of fusion - the enthalpy change that occurs to melt a solid at its melting point;",1.6485368013381958],["Enthalpy of fusion - the enthalpy change that occurs to melt a solid at its melting point;",1.6485368013381958],["Melting Melting is the process by which a solid changes state from a solid to a liquid.",1.6383488178253174],["The temperature at which this occurs is called melting point and the energy required to change a solid to a liquid is known as Latent Heat of Fusion.",1.6279476881027222],["When snow or sleet or freezing rain is occurring a heater is installed in the gauge to melt the solid precipitation which is falling into the gauge.",1.6279476881027222],["When snow or sleet \nor freezing rain is occurring a heater is installed in the gauge to melt the solid precipitation which is falling into the gauge.",1.6279476881027222],["The temperature at which the transition from solid to liquid occurs is the melting point or phase change temperature.",1.6279476881027222],["Sulphur 2.0 16 K The changes which occur as solid Sulphur is heated to its boiling point.",1.625851035118103],["X1011583962-00231-67545</DOCNO> Normal Melting and Boiling Points Slide 44 of 49 Normal Melting and Boiling Points The boiling point of a liquid varies with atmospheric pressure Higher in a pressure cooker Lower on mountains The normal boiling point of a liquid is defined as the temperature at which it boils when the external (i.e., atmospheric pressure is) 1 atm The normal melting point of a solid is similarly defined -->",1.6134706735610962],["X1011758482-00316-81964</DOCNO> Normal Melting and Boiling points Slide 43 of 48 Normal Melting and Boiling points The boiling point of a liquid varies with atmospheric pressure Higher in a pressure cooker Lower on mountains The normal boiling point of a liquid is defined as the temperature at which it boils when the external (i.e., atmospheric pressure is) 1 atm The normal melting point of a solid is similarly defined -->",1.6134706735610962],["The dynamic process occurs when the pressure is suddenly released, causing the droplets to boil and to steal the latent heat of vaporization from the melt, thereby cooling it and rapidly forming a solid, lightweight foam.",1.6065243482589722],["At room temperature it occurs as a white solid but its melting point is 27 °C. Boiling point has been reported to be 256 °C, however in some tests decomposition of the material was noted at 220 °C.",1.6065243482589722],["Examples of Solid to Liquid (Melting)   Solid to liquid - Melting occurs when something that is solid turns back into a liquid.",1.5805736780166626],["Examples of Solid to Liquid ( Melting )   Solid to liquid - Melting occurs when something that is solid turns back into a liquid ;",1.5805736780166626],["This may happen in both a solid rock or in a melt.",1.5504388809204102],["At the melting point both solid and liquid can exist.",1.5504388809204102],["Both are boiled for long periods into a consistent solid balls.",1.5480800867080688],["The solid sample we're using has a melting point several degrees below the boiling point of water, so there's time to do both things without them interfering with each another.",1.5258640050888062],["(2) a heated solid tool which directly engages the material (to effect penetration thereof by melting, or by transmission of mechanical energy, or both);",1.5204004049301147],["You will need A LOT of melted solid color crayons.",1.5028586387634277],["The following information is usually included: Boiling Point (BP): temperature at which liquid changes to vapor state Melting Point (MO): temperature at which a solid begins to change to liquid Vapor Pressure (VP): expressed in mmHg.",1.4944580793380737],["Such covalent substances are low-boiling-temperature liquids (such as ethanol), and low-melting-temperature solids (such as iodine and solid CO2).",1.4916995763778687],["k. ________________________ solids are the crystalline solids that have the highest melting points and boiling points and are poor conductors of electricity.",1.4916995763778687],["The melting of a solid, boiling of a liquid, and sublimation of a solid are examples of first order phase transitions.",1.4916995763778687],["Ionic compounds characterized by Solids at room temperature High melting and boiling points Solid does not conduct electricity;",1.4916995763778687],["Examples include the melting of a solid, The freezing of a liquid, sublimation of a solid to a gas, formation of a solution, evaporation, boiling process, crystallization, etc.",1.4916995763778687],["No SS, Incongruently Melting Compound Incongruently Melting Compound is a solid phase which when heated does not melt to a liquid of its own composition, it melts to a liquid and another solid, e.g. Enstatite ===> Forsterite + Liquid Both reactions take place at low pressure.",1.4851772785186768],["It comes in a solid block, which you will need to chop up into little chunks before you try to melt it.",1.47810697555542],["It comes in a solid block, which you will need to chop up into little chunks before you try to melt it.",1.47810697555542],["It comes in a solid block, which you will need to chop up into little chunks before you try to melt it.",1.47810697555542],["To give the electrons sufficient thermal energy that the can break bonds needs a higher temperature than the solid can handle, melting will occur first.",1.4756377935409546],["melting point boiling point both melting point and boiling point neither melting point nor boiling point As the average kinetic energy of a gas decreases its temperature increases decreases remains constant varies unpredictably Generally one would predict the lowest melting point for ionic solids molecular solids metals there is no way to predict this Cooling a gas at constant pressure causes a volume decrease temperature increase volume increase kinetic energy increase According to the kinetic-molecular theory the atoms of an ideal gas never collide with each other lose energy upon collision have kinetic energy proportional to temperature have a finite volume and cannot be compressed",1.4747363328933716],["pressure melting point - the temperature at which a solid melts changes with changes in pressure.",1.4532214403152466],["Melting Point The melting point is the temperature at which a solid material becomes a liquid.",1.4532214403152466],["MELTING POINT The melting point is the temperature at which a solid material becomes a liquid.",1.4532214403152466],["Melting Point The temperature at which a solid changes to a liquid is called the melting point.",1.4532214403152466],["With increasing temperature we see a succession of phase transitions for water in which its properties change dramatically: the solid phase - ice - melts to the liquid phase - water - and then eventually boils to the gaseous phase - steam.",1.4502720832824707],["takes on shape and volume of container Vapor: gaseous state of a solid or liquid See Overhead Transparency The temperature at which a substance melts and boils are physical properties that are used to identify a substance.",1.4502720832824707],["Amidst the scientific gibberish are things they can easily get a handle on, like melting point, boiling point, year of discovery, metal vs. non-metal, the temperature at which the elements are gasses, liquids, solids, etc.",1.4502720832824707],["Solid water H 2 O is hydrogen bonded, which explains its very high melting and boiling point as compared to similar molecules such as H 2 S and H 2 Se.",1.4502720832824707],["Melting point is the temperature at which a solid changes to liquid.",1.4370512962341309],["Melting point: The temperature at which a solid becomes a liquid.",1.4370512962341309],["Which of the following solids has the highest melting point?",1.4370512962341309],["walls which seem solid melt away;",1.4370512962341309],[", the degree of temperature at which a solid substance melts or fuses;",1.4370512962341309],["The melting point is the temperature at which a solid turns into a liquid.",1.4370512962341309],["Melting Point The temperature at which a solid changes to a liquid.",1.4370512962341309],["Melting Point-- The temperature at which a solid changes to a liquid.",1.4370512962341309],["walls which seem solid melt away;",1.4370512962341309],["E. Melting is the process by which a solid is changed to liquid.",1.4370512962341309],["Melting Point: The temperature at which a solid becomes a liquid.",1.4370512962341309],["MELTING POINT The temperature at which a solid changes to a liquid.",1.4370512962341309],["Melting Point The temperature at which a solid changes to a liquid.",1.4370512962341309],["melting : the point at which heat changes a solid to a liquid.",1.4370512962341309],["The melting point is the T at which the solid turns to a liquid.",1.4370512962341309],[", the degree of temperature at which a solid substance melts or fuses;",1.4370512962341309],["melting point : the temperature at which a solid begins to liquefy.",1.4370512962341309],["In this type of system with a peritectic, there is also an incongruently melting compound, in this case En, which implies that a reaction relationship occurs between this compound the liquid and another solid phase.",1.4244542121887207],["To find out the step of HDDR powder preparation process in which such a crystallisation occured, a solid sample of the melt with ZrO 2 was prepared (before the hydrogenation) for TEM observation.",1.4244542121887207],["Both ice cream and granite start out as liquids which when cooled became solid, and both will melt again if the temperature gets hot enough.",1.418430209159851],["Because these forces are not as strong as the ion-ion forces in ionic solids, molecular solids tend to have lower melting and boiling points compared to ionic solids.",1.4046744108200073],["The lower heat source causes melting to occur in the lower solid region (Fig.",1.3928580284118652],["Heat until the solid is dry and very slight melting occurs;",1.3928580284118652],["This rearrangement occurs by slow, solid-state diffusion of atoms -- no melting is involved in this process.",1.3928580284118652],["Metamorphism occurs in a solid state without melting at temperatures and pressure.",1.3928580284118652],["The lower heat source causes melting to occur in the lower solid region (Fig.",1.3928580284118652],["The lower heat source causes melting to occur in the lower solid region.",1.3928580284118652],["The lower heat source causes melting to occur in the lower solid region (Fig.",1.3928580284118652],["On the other hand, the processors 2, 5 and 8 have both melt and solid together with with melt-solid interface movement.",1.3862707614898682],["On the other hand, the processors 2, 5 and 8 have both melt and solid together with with melt-solid interface movement.",1.3862707614898682],["Observe and record the temperature at which the solid begins to melt, and also the temperature at which the last solid melts.",1.3548649549484253],["This is why ionic solids generally have very high melting points -- to melt the solid, ionic bonds need to be broken.",1.3545506000518799],["While pure water will boil without much problem in Styrofoam, water containing dissolved solids such as sugar or salt will boil at a higher temperature and may melt the Styrofoam.",1.354053258895874],["While pure water will boil without much problem in Styrofoam, water containing dissolved solids such as sugar or salt will boil at a higher temperature and may melt the Styrofoam.",1.354053258895874],["While pure water will boil without much problem in Styrofoam, water containing dissolved solids such as sugar or salt will boil at a higher temperature and may melt the Styrofoam.",1.354053258895874],["Treatment of the ash using a swirling flow melting furnace or plasma melting furnace both reduces the volume of the ash and produces a harmless solid slag which can be used as a building or construction material.",1.3448432683944702],["Melt Growth Melt growth experiments have focused on solid solution systems (PbSnTe, HgCdTe) in which density gradients due to both temperature and concentration can interact to drive flow.",1.3448432683944702],["Examples of transformations include melting (when a solid becomes a liquid) and boiling (when a liquid becomes a gas).",1.3435977697372437],["The solid form of a substance (water, sodium chloride, iron) melts, and the liquid form boils, when heat is added.",1.3435977697372437],["Germanium(IV) iodide is a crystalline solid with melting point 144 °C and boiling point 440 °C (with decomposition).",1.3435977697372437],["Diphenolic acid is a solid at room temperature, melting at 168–171 °C and boiling at 507 °C.",1.3435977697372437],["It is a red crystalline solid, usually in form of flakes or powder, with melting point of 74-76 °C and boiling point of 346 °C.",1.3435977697372437],["Baekeland created a liquid resin that hardened into a transparent, amber solid that wouldn't burn, boil, melt or dissolve -- even in acid.",1.3435977697372437],["Iridium hexafluoride is a yellow crystalline solid that melts at 44 °C and boils at 53.6 °C.",1.3435977697372437],["1,6-Hexanediol (HOCH2(CH2)4CH2OH) is a colorless crystalline solid that melts at 42 °C and boils at 250 °C.",1.3435977697372437],["Osmium hexafluoride is a yellow crystalline solid that melts at 33.4 °C and boils at 47.5 °C.",1.3435977697372437],["Tetrahydro-2-furoic acid is a low melting solid or high boiling liquid, depending on temperature.",1.3435977697372437],["It is a stable brittle white crystalline solid with melting point of 1477 °C and boiling point 2460 °C.",1.3435977697372437],["Silicon is a solid at room temperature, with relatively high melting and boiling points of 1414 and 3265 °C, respectively.",1.3435977697372437],["This red solid has a melting point of 30 °C and a boiling point of 117 °C.",1.3435977697372437],["Solid ------- Liquid ------- Gas ------- Physical properties are solubility, volume, length, color, odor, melting point, mass, boiling point.",1.3435977697372437],["A. High melting point D. Low boiling point B. Solid at room temperature E.",1.3435977697372437],["Boiling point and melting point vary for different substances In a solid, molecules are held together tightly by bonds, and simply vibrate.",1.3435977697372437],["Ionic Compounds Ionic compounds are generally solids at room temperature and have high melting and boiling points.",1.3435977697372437],["Iodine is a solid at room temperature with a melting point of 113.6&#186;C and a boiling point of 183&#186;C.",1.3435977697372437],["Changes of state involve a solid melting, a liquid freezing, a liquid boiling or a gas condensing.",1.3435977697372437],["8- \"The energy required to melt 1.0 mole of a solid at the boiling point\" is the definition of the latent heat of evaporation.",1.3435977697372437],["Metals occupy the left side of the periodic table, and are usually solids with high densities, and high melting and boiling points.",1.3435977697372437],["condenses, freezes melts, boils freezes, sublimes sublimes, condenses remains a solid 24.",1.3435977697372437],["Most such materials exist as solids at ordinary temperature, and melt and boil only at very elevated temperature.",1.3435977697372437],["The solid form of a substance (water, sodium chloride, iron) melts, and the liquid form boils, when heat is added.",1.3435977697372437],["First, we note that 5800 K is so hot that all known solids melt and all known liquids boil.",1.3435977697372437],["My element is very solid it's boiling point is 3730.0 Fahrenheit and the melting point is 1197.0 Fahrenheit.",1.3435977697372437],["The first thing that happens is that the solid wax is melted, the liquid wax travels up the wick and is boiled off, becoming vaporised.",1.3435977697372437],["Ionic solids have high melting and boiling points because of the ion-ion forces holding these ions in the structure.",1.3435977697372437],["C. ________ (D) The boiling point of the solvent ideally is below the melting point of the solid to be recrystallized.",1.3435977697372437],["Here are the correct ones: solid, liquid, gas, kinetic energy, melting point, boiling point, vapor.",1.3435977697372437],["This would normally include the molecular weight, the melting point of solids and liquids, the boiling point and densities of liquids, and the water solubility.",1.3435977697372437],["Decaborane is a relatively volatile solid with a melting point of 99.5 deg C and a boiling point of 213 deg C.",1.3435977697372437],["It s a solid, and it melts at 700 C and boils at 1140 C. Radium was discovered by Marie and Pierre Curie in 1898.",1.3435977697372437],["Decaborane is a relatively volatile solid with a melting point of 99.5 deg C and a boiling point of 213 deg C.",1.3435977697372437],["Explore the relationship between the strength of the forces holding solids and liquids together and the magnitude of the melting and boiling points of those substances.",1.3435977697372437],["Later, he tells them how solids can melt, and how liquids boil or evaporate.",1.3435977697372437],["\"3 - Lithium Li (solid) ^Atomic Weight: 6.941 ^Melting point: 180.6 C ^Boiling point: 1342 C\";",1.3435977697372437],["This would normally include the molecular weight, the melting point of solids, the boiling point and densities of liquids, and the water solubility.",1.3435977697372437]]