[["Boiling point: The boiling point of a substance is the temperature at which the liquid boils or becomes a gas.",2.771233558654785],["Boiling point: The boiling point of a substance is the temperature at which the liquid boils or becomes a gas.",2.771233558654785],["Boiling point: The boiling point of a substance is the temperature at which the liquid boils or becomes a gas.",2.771233558654785],["When a substance reaches its boiling point it becomes a gas.",2.715712070465088],["Observe what happens when a gas is cooled to its boiling point.",2.4068784713745117],["What is happening internally when the substance changes phase from liquid or gas to solid is the atoms are becoming more and more organized and structured.",2.376361846923828],["LATENT HEAT: The additional heat required to change the state of a substance from solid to liquid at its melting point, or from liquid to gas at its boiling point, after the temperature of the substance has reached either of these points.",2.078298568725586],["gas solid liquid matter in all three phases will do this Which of the following chemical substances would you expect to have the highest boiling point?",2.078090190887451],["gas solid liquid matter in all three phases will do this Which of the following chemical substances would you expect to have the highest boiling point?",2.078090190887451],["CRITICAL POINT TRANSITIONS: Observing a substance as it changes from a solid to a liquid or a liquid to a gas is a familiar experience: we often watch ice melt and water boil.",2.078090190887451],["If you follow the horizontal line beginning at the pressure axis at 1 atm, the substance begins as a solid, passes the normal freezing (or melting) point into a liquid, then boils to a gas.",2.078090190887451],["What happens to the vapor pressure, freezing point, and boiling point of a liquid if you dissolve a solid in it.",2.0598201751708984],["Boiling Point The temperature at which a liquid becomes a gas.",2.0111875534057617],["A liquid becomes a gas at its boiling point.",2.0111875534057617],["A liquid becomes a gas at its boiling \npoint.",2.0111875534057617],["The boiling point is the temperature when a liquid becomes a gas.",2.0111875534057617],["In the case of minerals we find such critical stages at the melting and boiling points, for example, when the solid suddenly becomes a liquid or the liquid becomes a gas.",1.995912790298462],["In the case of minerals we find such critical stages at the melting and boiling points, for example, when the solid suddenly becomes a liquid or the liquid becomes a gas.",1.995912790298462],["In the case of minerals we find such critical stages at the melting and boiling points, for example, when the solid suddenly becomes a liquid or the liquid becomes a gas.",1.995912790298462],["Absolute Entropy: S gas &gt; S liquid &gt; S solid What happens to the substance when heat is applied?",1.9784759283065796],["A liquid can become a gas when it boils or a solid when it freezes.",1.902995228767395],["If the boiling point is below the reaction temperature , the substance is Gas (g).",1.8878438472747803],["The temperature at which the liquid turns into gas is called the boiling point of the substance.",1.8878438472747803],["Gas When substances are heated further, they reach their boiling points.",1.8878438472747803],["A vapor is a substance in the gas phase below its boiling point.",1.8878438472747803],["States of substances (1) : Gas and Liquid (Boiling point) 3.",1.8878438472747803],["If the boiling point is below the reaction temperature , the substance is Gas (g).",1.8878438472747803],["In this technique a gas, usually nitrogen, at its boiling point, is adsorbed on the solid sample.",1.878380298614502],["In this technique a gas, usually nitrogen, at its boiling point, is adsorbed on the solid sample.",1.878380298614502],["In this technique a gas, usually nitrogen, at its boiling point, is adsorbed on the solid sample.",1.878380298614502],["Label it solid below melting point, liquid between the melting and boiling points and gas above the boiling point.",1.8772571086883545],["liquid to solid solid to liquid liquid to gas gas to liquid answer Liquid Nitrogen: Pour liquid N 2 What is the boiling point of liquid N 2 ?",1.8327819108963013],["Boiling Point&#9; Boiling point is the temperature in degrees Fahrenheit or Centigrade at which the liquid boils (or becomes gas).",1.8197228908538818],["Boiling Point Boiling point is the temperature in degrees Fahrenheit or Centigrade at which the liquid boils (or becomes gas).",1.8197228908538818],["Boiling happens when the liquid is raised to the temperature at which it becomes a gas;",1.7773211002349854],["The melting point of a substance is the point where it changes state from solid to liquid while the boiling point of a substance (in liquid state) is the point where the vapour pressure of the liquid equals the environmental pressure surrounding the liquid and all the liquid changes state to gas.",1.7754757404327393],["liquids solids none of the above is correct 4) Pick the true statement: Solids have a melting point Gases have a boiling point Solids have a condensation point 5) Pick the true statement below: A gas becomes a liquid at condensation point.",1.7373816967010498],["If the substance heated is a solid, under normal conditions that temperature is the melting point at which the substance becomes a liquid (if the substance goes from a solid to a gas rather than to a liquid, the temperature is called the sublimation point rather than the melting point).",1.7154873609542847],["If the substance heated is a solid, under normal conditions that temperature is the melting point at which the substance becomes a liquid (if the substance goes from a solid to a gas rather than to a liquid, the temperature is called the sublimation point rather than the melting point).",1.7154873609542847],["This table lists the gas–liquid–solid triple points of several substances.",1.7043476104736328],["As it reaches the boiling point the fat will rise to the surface and becomes foamy and semi solid.",1.7025656700134277],["All the ornaments become the solid mass of gold when they are heated to the boiling point.",1.7025656700134277],["b) Melting point and boiling point Answer: The melting point of a substance is the temperature at which it will change from a solid to a liquid.",1.6838674545288086],["Evaporation when some liquid becomes a gas at temperatures below the boiling point.",1.6759896278381348],["at that temperature, called the boiling point, the gas can also become a liquid.",1.6759896278381348],["The special temperature when a liquid becomes a gas is called the BOILING POINT .",1.6759896278381348],["The boiling point of a substance is that temperature when the gas state of the substance forms bubbles in its liquid.",1.674827218055725],["The process is relatively simple: a) the dirty water is heated b) to the boiling point and thus vaporizes c) (becomes steam), while other substances remain in solid state, in boiler.",1.6493593454360962],["Example: ice water + heat = liquid water T m = 0 C o Freezing By decreasing temperature Liquid = solid + heat T f = freezing point Freezing point: the temperature at which liquid solid T m = T f for a given substance Vaporization (evaporation) By increasing the temperature Liquid + heat = gas (vapor) T b = normal boiling point Condenstaion: Gas = liquid + heat For a given substance, condensation and vaporization are occurred at the same temperature (T b ) Any substance has its own boiling point Deposition: By decreasing temperature Gas = solid + heat Sublimation: By increasing temperature Solid + heat = gas For a given substance: sublimation temperature = deposition temperature.",1.6339068412780762],["Boiling point and melting point vary for different substances In a solid, molecules are held together tightly by bonds, and simply vibrate.",1.6177291870117188],["Examples of transformations include melting (when a solid becomes a liquid) and boiling (when a liquid becomes a gas).",1.616745948791504],["Water, for example, is a liquid, but when cooled it freezes to become a solid, and when heated it boils to become steam, a gas.",1.616745948791504],["Ask students to guess the answer, then present orally and in writing the temperature of 2,300C. Conclude by telling students that every substance has its own boiling and melting point \nand that it means that each substance requires a specific amount of energy to cause it to change from a liquid to a solid, from a liquid to a gas, or for any phase change.",1.612906575202942],["If the pressure is below the triple point the following happens: The substance is a solid at lower temperatures.",1.6052495241165161],["Solid ------- Liquid ------- Gas ------- Physical properties are solubility, volume, length, color, odor, melting point, mass, boiling point.",1.5888973474502563],["Here are the correct ones: solid, liquid, gas, kinetic energy, melting point, boiling point, vapor.",1.5888973474502563],["Boiling Point (centigrade) (Boil Pt) The temperature at which a solid becomes a liquid at standard atmospheric pressure.",1.5842740535736084],["The ruminations snowball...what happens if someone's body chemistry alters to the point that formerly benign substances become poisonous?",1.5756556987762451],["Atomic Number = 1 Atomic Weight = 1.00794 amu Melting Point = -259.34 o C Boiling Point = -252.87 o C Density = .08988 g/l (gas) Density (liquid, solid) = 70.8 g/l, 70.6 g/l Hydrogen was first recognized as a distinct substance by Cavendish in 1766.",1.5516886711120605],["Explore the relationship between the strength of the forces holding solids and liquids together and the magnitude of the melting and boiling points of those substances.",1.5315359830856323],["for example the change from solid to liquid takes place at the melting point of solid while the change from liquid to gas is done at boiling point .",1.5315243005752563],["for example the change from solid to liquid takes place at the melting point of solid while the change from liquid to gas is done at boiling point.",1.5315243005752563],["When a solid substance reaches the temperature of the melting point, then it can become a liquid.",1.5285331010818481],["When a solid substance reaches the temperature of the melting point, then it can become a liquid.",1.5285331010818481],["In thermodynamics, the triple point of a substance is the temperature and pressure at which the three phases (gas, liquid, and solid) of that substance coexist in thermodynamic equilibrium.",1.528030276298523],["Chemical Changes Changes that produce a new kind of matter with different properties from the original Properties of matter Has mass Takes up Space Has a physical state (solid, liquid, gas) Has a definite boiling point Has a definite melting / freezing point Pure Substances A substance that is the same throughout Has a constant boiling point ;",1.5244208574295044],["Identify a substance as a solid, a liquid, or a gas.",1.516448736190796],["In contrast, the related substance ethane, H3CCH3, is a gas with a boiling point 285 °C lower.",1.51027512550354],["In general, a low boiling point means the substance will be in gas form at room temperature (unless it is pressurized).",1.51027512550354],["Boiling Point: The temperature at which a substance changes from the liquid phase to the gas phase.",1.51027512550354],["A stricter definition of boiling point is the temperature at which the liquid and vapor (gas) phases of a substance can exist in equilibrium.",1.51027512550354],["boiling point: temperature at which a single substance, such as water, changes from a liquid to a gas (steam) under normal atmospheric pressure.",1.51027512550354],["A stricter definition of boiling point is the temperature at which the liquid and vapor (gas) phases of a substance can exist in equilibrium.",1.51027512550354],["A stricter definition of boiling point is the temperature at which the liquid and vapor (gas) phases of a substance can exist in equilibrium.",1.51027512550354],["INDICATION: Skip if the substance is a gas or has a boiling point 350 C. Round to 0.01 for values between 0.9 and 1.1;",1.51027512550354],["Boiling point of ionic solids &gt; boiling point of covalent \nmolecular solids.",1.503846287727356],["The flame produced will sublimate (turn instantly from a solid to a gas) Tungsten, which has the highest boiling point of all of the elements.",1.50270414352417],["This is what happens when liquid water boils to become water vapor.",1.4895775318145752],["The question is what will happen to this practice of boiling water if firewood becomes scarce?",1.4895775318145752],["Solid substances are not characterized by a similar phenomena as boiling.",1.4888782501220703],["When this movement becomes large enough, then the bonds that hold the atoms of a solid together break, and the substance becomes either liquid or gas.",1.4775198698043823],["Be it high or low, the temperature above which any substance is always a gas, regardless of pressure, is called the critical temperature, or absolute boiling- point, of that substance.",1.4654738903045654],["ANSWER The normal boiling point of a substance is defined to be the temperature at which the liquid phase of the substance is in equilibrium with the gas phase at 1 atm pressure.",1.4654738903045654],["Commercially this juice is boiled down to a black treacly substance or a solid residue, and this is what one buys at the chemist (druggist).",1.4616847038269043],["A gas will condense at its boiling point .",1.4608269929885864],["gas filling raises the boiling point.",1.4608269929885864],["The solution is boiled and a solid substance separates from the boiling mixture.",1.4490644931793213],["The solution is boiled and a solid substance separates from the boiling mixture.",1.4490644931793213],["The solution is boiled and a solid substance separates from the boiling mixture.",1.4490644931793213],["The solution is boiled and a solid substance separates from the boiling mixture.",1.4490644931793213],["The solution is boiled and a solid substance separates from the boiling mixture.",1.4490644931793213],["The solution is boiled and a solid substance separates from the boiling mixture.",1.4490644931793213],["The first thing that happens is that the solid wax is melted, the liquid wax travels up the wick and is boiled off, becoming vaporised.",1.4431177377700806],["\"Cavitation\" or \"cold boiling\" is easy to understand if you think about what the words \"solid\", \"liquid\", and \"gas\" mean.",1.4328529834747314],["Boiling point: 25 degrees Centigrade [point at which the liquid becomes gas] The liquid evaporates easily.",1.4269847869873047],["Boiling point: 25 degrees Centigrade [point at which the liquid becomes gas] The liquid evaporates easily.",1.4269847869873047],["The boiling point increases with increased pressure up to the critical point, where the gas and liquid properties become identical.",1.4269847869873047],["Boiling happens when a liquid becomes gas forming bubbles inside the liquid volume.",1.4218568801879883],["Physical properties such as Melting Point and Boiling Point depend directly on the magnitude of the forces of attraction which are holding the particles, or units, of a substance together in the solid or liquid state.",1.415513038635254],["...back to table of contents Criteria to Determine Which Substance has the Highest Boiling Point (b.p.) or Melting Point (m.p.) Any network covalent solid (eg.",1.415513038635254],["In addition to the triple point between solid, liquid, and gas, there can be triple points involving more than one solid phase, for substances with multiple polymorphs.",1.4097014665603638],["Ozone is a blue gas and a blue-black solid and liquid, melting point -193 degrees centigrade, boiling point -112 degrees centigrade.",1.3902851343154907],["At critical temperatures, namely freezing point and boiling point, water changes state from liquid to solid and from liquid to gas, respectively.",1.3902851343154907],["The melting points (resulting in the transition from solid to liquid) and the boiling points (resulting in the transition from liquid to gas) vary for different materials.",1.3902851343154907],["Draw a heating or cooling curve and label the melting or freezing point, the boiling point, and the parts of the curve that represent solid, liquid, and gas states.",1.3902851343154907],["Melting Point The temperature at which a solid substance becomes a liquid, or at which a liquid substance solidifies.",1.3873785734176636],["sublime Sublimation occurs when a substance changes directly from a solid to a gas without becoming liquid.",1.3831701278686523],["sublime Sublimation occurs when a substance changes directly from a solid to a gas without becoming liquid.",1.3831701278686523],["if there were no attractive forces between molecules, no substances would ever condense from the gas state to become liquids and solids.",1.3831701278686523],["SUBLIMATION - Condition where a substance changes from a solid to a gas without becoming a liquid.",1.3831701278686523],["sublime Sublimation occurs when a substance changes directly from a solid to a gas without becoming liquid.",1.3831701278686523],["sublime Sublimation occurs when a substance changes directly from a solid to a gas without becoming liquid.",1.3831701278686523],["sublime Sublimation occurs when a substance changes directly from a solid to a gas without becoming liquid.",1.3831701278686523],["sublime Sublimation occurs when a substance changes directly from a solid to a gas without becoming liquid.",1.3831701278686523],["sublime Sublimation occurs when a substance changes directly from a solid to a gas without becoming liquid.",1.3831701278686523],["sublime Sublimation occurs when a substance changes directly from a solid to a gas without becoming liquid.",1.3831701278686523],["sublime Sublimation occurs when a substance changes directly from a solid to a gas without becoming liquid.",1.3831701278686523],["sublime Sublimation occurs when a substance changes directly from a solid to a gas without becoming liquid.",1.3831701278686523],["Sublimation (physics) Sublimation, is the process by which a solid substance changes into a gas, or vapor, without first becoming a liquid.",1.3831701278686523],["sublime Sublimation occurs when a substance changes directly from a solid to a gas without becoming liquid.",1.3831701278686523],["sublime Sublimation occurs when a substance changes directly from a solid to a gas without becoming liquid.",1.3831701278686523],["In the third lesson, students investigate what happens to the amount of different substances as they change from a solid to a liquid or a liquid to a solid.",1.3757646083831787],["Melting and Freezing allows students to investigate what happens to the amount of different substances as they change from a solid to a liquid or a liquid to a solid.",1.3757646083831787],["In recent years, a goal has been to find a substance that becomes superconducting above the boiling point of liquid nitrogen.",1.3696234226226807],["For most substances the gas–liquid–solid triple point is also the minimum temperature at which the liquid can exist.",1.3634780645370483],["Triple point: The combination of temperature and pressure in a phase diagram at which the substance can simultaneously exist as a gas, a liquid, and a solid.",1.3634780645370483],["For most substances the gas–liquid–solid triple point is also the minimum temperature at which the liquid can exist.",1.3634780645370483],["triple point A temperature at which all three phases of a pure substance solid, liquid and gas-are in equilibrium.",1.3634780645370483],["The solid line connecting the critical points of the pure substances is the gas-liquid critical line.",1.3634780645370483],["freezing point: the temperature at which a substance changes from a gas or liquid phase to a solid phase under a specified pressure.",1.3634780645370483],["triple point A temperature at which all three phases of a pure substance solid, liquid and gas-are in equilibrium.",1.3634780645370483],["Triple point: The combination of temperature and pressure in a phase diagram at which the substance can simultaneously exist as a gas, a liquid, and a solid.",1.3634780645370483],["Liquid but corporeal substances become surrounded by some kind of covering on heating, like the solid scum which forms on boiled foods when cooling.",1.357324481010437],["OECD Test Guideline 102 [2.2] Boiling Point Should always be stated for substances other than gases or solids and liquids which either boil above 300 C or decompose before boiling (in which cases estimates based on vapour pressure or the boiling point under reduced pressure are necessary).",1.3463870286941528],["OECD Test Guideline 102 [2.2] Boiling Point Should always be stated for substances other than gases or solids and liquids which either boil above 300 C or decompose before boiling (in which cases estimates based on vapour pressure or the boiling point under reduced pressure are necessary).",1.3463870286941528],["This could be by an increase in volume, boiling point, viscosity or other physical characteristic of the substance, as water molecules can become suspended between the substance's molecules in the process.",1.3424036502838135],["a natural gas cooled to below its boiling point of -260 degrees Fahrenheit so that it becomes a liquid;",1.3407917022705078],["For example, a liquid may become gas upon heating to the boiling point, resulting in an abrupt change in volume.",1.3407917022705078],["For example, a liquid may become gas upon heating to the boiling point, resulting in an abrupt change in volume.",1.3407917022705078],["Boiling Point This is the temperature at which a liquid becomes a gas at normal atmospheric pressure (760 mm-Hg).",1.3407917022705078],["I believe that boiling point means the temperature (for a given pressure) where the material becomes a gas.",1.3407917022705078],["Vapor Pressure A liquid doesn't have to be heated to its boiling point before it can become a gas.",1.3407917022705078],[": I believe that boiling point means the temperature (for a given pressure) : where the material becomes a gas.",1.3407917022705078],["The molecules of water at boiling point have enough energy to break free from the other molecules in the liquid and become a gas.",1.3407917022705078],["Vapor Pressure A liquid doesn't have to be heated to its boiling point before it can become a gas.",1.3407917022705078],["a natural gas cooled to below its boiling point of -260 degrees Fahrenheit so that it becomes a liquid;",1.3407917022705078],["a natural gas cooled to below its boiling point of minus 260 degrees Fahrenheit so that it becomes a liquid;",1.3407917022705078],["Vaporization involves heating the mixture to the boiling point of the solvent desired until the liquid becomes a gas.",1.3407917022705078],["At certain temp, water has received enough heat to become a gas That's the boiling point.",1.3407917022705078],["The boiling point of any pure substance is always the same, but this can be a dodgy way to identify solids as you can see, the slightest impurity can cause a change.",1.340093970298767],["The boiling point of any pure substance is always the same, but this can be a dodgy way to identify solids as you can see, the slightest impurity can cause a change.",1.340093970298767],["Steep : To allow a solid substance to stand in liquid just below the boiling point, while color, flavor and other qualities are extracted from it;",1.340093970298767]]